<?xml version="1.0" encoding="UTF-8"?>
<VTKFile type="UnstructuredGrid" version="0.1" byte_order="LittleEndian">
<UnstructuredGrid>
<Piece NumberOfPoints="1005" NumberOfCells="1800">
<PointData>
<DataArray type="Float64" Name="Material_settings" Format="ascii">
1
1
1
1
1
1
1
1
1
1
1
1
1
1
1
1
1
1
1
1
1
1
1
1
1
1
1
1
1
1
1
1
1
1
1
1
1
1
1
1
1
1
1
1
1
1
1
1
1
1
1
1
1
1
1
1
1
1
1
1
1
1
1
1
1
1
1
1
1
1
1
1
1
1
1
1
1
0
0
0
0
0
0
0
0
0
0
0
0
0
0
0
0
0
0
0
0
0
0
0
0
0
0
0
0
0
0
0
0
0
0
0
0
0
0
0
0
0
0
0
0
0
0
0
0
0
0
0
0
0
0
0
0
0
0
0
0
0
0
0
0
0
0
0
0
0
0
0
0
0
0
0
0
0
0
0
0
0
0
0
0
0
0
0
0
0
0
0
0
0
0
0
0
0
0
0
0
0
0
0
0
0
0
0
0
0
0
0
0
0
0
0
0
0
0
0
0
0
0
0
0
0
0
0
0
0
0
0
0
0
0
0
0
0
0
0
0
0
0
0
0
0
0
0
0
0
0
0
0
0
0
0
0
0
0
0
0
0
0
0
0
0
0
0
0
0
0
0
0
0
0
0
0
0
0
0
0
0
0
0
0
0
0
0
0
0
0
0
0
0
0
0
0
0
0
0
0
0
0
0
0
0
0
0
0
0
0
0
0
0
0
0
0
0
0
0
0
0
0
0
0
0
0
0
0
0
0
0
0
0
0
0
0
0
0
0
0
0
0
0
0
0
0
0
0
0
0
0
0
0
0
0
0
0
0
0
0
0
0
0
0
0
0
0
0
0
0
0
0
0
0
0
0
0
0
0
0
0
0
0
0
0
0
0
0
0
0
0
0
0
0
0
0
0
0
0
0
0
0
0
0
0
0
0
0
0
0
0
0
0
0
0
0
0
0
0
0
0
0
0
0
0
0
0
0
0
0
0
0
0
0
0
0
0
0
0
0
0
0
0
0
0
0
0
0
0
0
0
0
0
0
0
0
0
0
0
0
0
0
0
0
0
0
0
0
0
0
0
0
0
0
0
0
0
0
0
0
0
0
0
0
0
0
0
0
0
0
0
0
0
0
0
0
0
0
0
0
0
0
0
0
0
0
0
0
0
0
0
0
0
0
0
0
0
0
0
0
0
0
0
0
0
0
0
0
0
0
0
0
0
0
0
0
0
0
0
0
0
0
0
0
0
0
0
0
0
0
0
0
0
0
0
0
0
0
0
0
0
0
0
0
0
0
0
0
0
0
0
0
0
0
0
0
0
0
0
0
0
0
0
0
0
0
0
0
0
0
0
0
0
0
0
0
0
0
0
0
0
0
0
0
0
0
0
0
0
0
0
0
0
0
0
0
0
0
0
0
0
0
0
0
0
0
0
0
0
0
0
0
0
0
0
0
0
0
0
0
0
0
0
0
0
0
0
0
0
0
0
0
0
0
0
0
0
0
0
0
0
0
0
0
0
0
0
0
0
0
0
0
0
0
0
0
0
0
0
0
0
0
0
0
0
0
0
0
0
0
0
0
0
0
0
0
0
0
0
0
0
0
0
0
0
0
0
0
0
0
0
0
0
0
0
0
0
0
0
0
0
0
0
0
0
0
0
0
0
0
0
0
0
0
0
0
0
0
0
0
0
0
0
0
0
0
0
0
0
0
0
0
0
0
0
0
0
0
0
0
0
0
0
0
0
0
0
0
0
0
0
0
0
0
0
0
0
0
0
0
0
0
0
0
0
0
0
0
0
0
0
0
0
0
0
0
0
0
0
0
0
0
0
0
0
0
0
0
0
0
0
0
0
0
0
0
0
0
0
0
0
0
0
0
0
0
0
0
0
0
0
0
0
0
0
0
0
0
0
0
0
0
0
0
0
0
0
0
0
0
0
0
0
0
0
0
0
0
0
0
0
0
0
0
0
0
0
0
0
0
0
0
0
0
0
0
0
0
0
0
0
0
0
0
0
0
0
0
0
0
0
0
0
0
0
0
0
0
0
0
0
0
0
0
0
0
0
0
0
0
0
0
0
0
0
0
0
0
0
0
0
0
0
0
0
0
0
0
0
0
0
0
0
0
0
0
0
0
0
0
0
0
0
0
0
0
0
0
0
0
0
1
1
1
1
1
1
1
1
1
1
1
1
1
1
1
1
1
1
1
1
1
1
1
1
1
1
1
1
1
1
1
1
1
1
1
1
1
1
1
1
1
1
1
1
1
1
1
1
1
1
1
1
1
1
1
1
1
1
1
1
1
1
1
1
1
1
1
1
1
1
1
1
1
1
1
1
1
</DataArray>
<DataArray type="Float64" Name="Electric_field,_x_component" Format="ascii">
1.4901161193847656E-8
1.909211277961731E-8
-1.7229467630386353E-8
5.122274160385132E-9
1.0943040251731873E-8
-1.5677263339360554E-8
8.071462313334147E-9
-3.647680083910624E-8
-7.078051567077637E-8
5.122274160385132E-9
-4.159907499949137E-8
-5.5258472760518394E-8
-4.035731156667073E-9
-3.073364496231079E-8
-1.7074247201283772E-8
-2.7163575092951458E-8
-8.769954244295755E-9
-2.5456150372823078E-8
-1.6142924626668293E-8
-1.0089327891667684E-8
-1.4901161193847656E-8
-9.546056389808655E-9
-1.854884127775828E-8
-1.5172796944777172E-8
-1.3426567117373148E-8
3.104408582051595E-10
-2.041148642698924E-8
-5.3551048040390015E-9
-5.1998843749364214E-9
-2.318605159719785E-9
-2.6969549556573233E-9
-1.932494342327118E-8
-4.579002658526103E-9
-3.5942265460183385E-9
-1.9383250560167653E-10
-8.99169331584441E-10
-3.880510727564494E-10
-4.113341371218364E-9
-3.2014213502407074E-9
1.166274188335592E-9
5.617039278149605E-9
8.634136368831E-9
1.1913167933622995E-8
-1.6395157823959987E-9
5.863185492671619E-10
8.750551690657934E-9
1.1680337289969126E-8
1.4396694799264273E-8
1.3814618190129599E-8
1.6298145055770874E-9
2.561137080192566E-9
1.3154931366443634E-8
1.6686196128527325E-8
1.0399768749872843E-8
1.288329561551412E-8
8.265487849712372E-9
3.2285849253336586E-8
1.7462298274040222E-8
1.288329561551412E-8
5.1998843749364214E-9
-6.28642737865448E-9
1.971299449602763E-8
5.432715018590291E-9
3.430371483167013E-8
9.934107462565104E-9
3.259629011154175E-9
-1.1486311753590902E-8
-1.3504177331924438E-8
1.4528632164001465E-8
2.628657966852188E-7
-3.259629011154175E-9
-1.3659397761027018E-8
-1.0710209608078003E-8
4.0302984416484833E-7
8.195638656616211E-8
9.080395102500916E-9
-1.2293457984924316E-7
-1.792795956134796E-8
-5.541369318962097E-8
-2.1886080503463745E-8
-8.071462313334147E-9
-4.617807765801748E-8
-1.0834385951360066E-7
3.725290298461914E-9
-2.2917187639645168E-8
-1.0632599393526713E-7
-1.7990047732988992E-7
-1.288329561551412E-8
3.4148494402567544E-9
-1.2444797903299332E-7
-1.8075418968995413E-7
-1.30385160446167E-8
2.483526865641276E-9
-1.3391642520825067E-7
-1.9200767079989115E-7
-1.4435499906539917E-8
3.725290298461914E-9
-1.3853423297405243E-7
-1.7943481604258219E-7
-1.800556977589925E-8
2.483526865641276E-9
-1.2549571692943573E-7
-1.424923539161682E-7
-1.0558869689702988E-7
-1.1827796697616577E-7
-7.140139738718669E-9
-1.862645149230957E-9
-9.313225746154785E-9
-1.241763432820638E-9
-8.903831864396731E-8
-9.631427625815074E-8
-6.826788497467835E-8
-6.955815479159355E-8
-9.623666604359945E-9
-2.1730860074361167E-9
-1.5522042910257974E-10
3.104408582051595E-10
-4.856459175546964E-8
-4.210354139407476E-8
-2.678429545747522E-8
-1.7756327537939615E-8
-1.862645149230957E-9
1.241763432820638E-9
2.1730860074361167E-9
1.241763432820638E-9
-7.37475679598217E-9
3.9726728573441505E-9
1.1986401579622274E-8
3.1073189650972686E-8
-2.3283064365386963E-9
2.7939677238464355E-9
-3.259629011154175E-9
3.4148494402567544E-9
3.223249223083258E-8
5.8265868574380875E-8
4.6003454675277076E-8
6.422245254119237E-8
0
-2.1730860074361167E-9
4.5013924439748125E-9
-2.1730860074361167E-9
5.684948215881983E-8
7.601920515298843E-8
7.757140944401424E-8
1.1447506646315257E-7
6.20881716410319E-9
-9.313225746154785E-10
0
-3.104408582051595E-10
9.709037840366364E-8
1.4357889691988626E-7
4.346172014872233E-9
4.6566128730773926E-9
1.1307808260122935E-7
1.6973353922367096E-7
1.233226309219996E-7
1.8300488591194153E-7
4.5013924439748125E-9
-2.1730860074361167E-9
1.0399768749872843E-8
-2.7939677238464355E-9
1.2479722499847412E-7
1.9449119766553244E-7
1.1610488096872966E-7
1.4854595065116882E-7
5.587935447692871E-9
3.104408582051595E-10
7.140139738718669E-9
-1.862645149230957E-9
6.372907332011632E-8
5.8673322200775146E-8
5.436595529317856E-8
5.820766091346741E-8
1.594889909029007E-8
3.4148494402567544E-9
2.5937333703041078E-8
3.259629011154175E-8
-7.993852098782858E-9
6.022552649180095E-8
2.7920274684826534E-8
2.483526865641276E-9
5.417192975680033E-8
3.199758274214608E-8
2.1109978357950847E-8
-1.241763432820638E-9
6.604629258314769E-8
1.1734664440155029E-7
1.5832483768463135E-8
2.483526865641276E-9
7.260435571273167E-8
1.0275592406590779E-7
1.1951973040898642E-8
0
6.996560841798782E-8
7.97056903441747E-8
2.1730860074361167E-9
6.20881716410319E-10
4.124982903401057E-8
4.5091534654299416E-8
1.0865430037180582E-8
-6.20881716410319E-10
3.2285849253336586E-8
1.6996636986732483E-8
3.5700698693593344E-9
-3.104408582051595E-10
1.1389298985401789E-8
1.4978771408398945E-8
2.0178655783335366E-9
2.1730860074361167E-9
1.280568540096283E-8
2.5572565694650013E-8
7.295360167821248E-9
-6.20881716410319E-10
1.569666589299838E-8
3.504101186990738E-8
3.104408582051595E-10
-3.104408582051595E-10
1.6982085071504116E-8
2.683858231951793E-8
1.5522042910257976E-9
-1.5522042910257976E-9
9.938638060683994E-9
7.101334631443024E-9
4.035731156667073E-9
2.1730860074361167E-9
-1.917209798326288E-9
-9.593117411554886E-9
-4.346172014872233E-9
-2.1730860074361167E-9
-1.2038561851094679E-8
-1.9053307672341664E-8
3.259629011154175E-9
3.725290298461914E-9
-1.7180961246291797E-8
-2.4466620137294132E-8
-5.432715018590291E-9
2.483526865641276E-9
-2.4806164825956028E-8
-3.2751510540644326E-8
-3.880510727564494E-9
9.313225746154785E-10
-4.029910390575727E-8
-4.7807892163594566E-8
3.259629011154175E-9
6.20881716410319E-10
-5.758677919705709E-8
-8.327576021353404E-8
-3.725290298461914E-9
3.104408582051595E-10
-7.757140944401424E-8
-1.3054038087526956E-7
-1.862645149230957E-9
-2.1730860074361167E-9
-1.0469617942969005E-7
-1.725275069475174E-7
-1.5987704197565716E-8
2.1730860074361167E-9
-1.2239130834738413E-7
-1.701992005109787E-7
-1.924733320871989E-8
-1.241763432820638E-9
-1.2087790916363397E-7
-1.5599653124809265E-7
-2.576659123102824E-8
9.313225746154785E-10
-1.0609316329161327E-7
-1.5894571940104166E-7
-4.763049738747733E-8
-2.7939677238464355E-9
-1.0446334878603618E-7
-1.825392246246338E-7
-8.214265108108521E-8
-3.073364496231079E-8
-5.611218512058258E-8
-3.845198079943657E-8
-8.180116613705953E-8
-2.8512052570780117E-8
-5.195449505533491E-8
-9.872019290924072E-8
-2.2895013292630512E-8
-7.388492425282796E-8
-4.384977122147878E-8
-5.3131952881813047E-8
-1.0787819822629292E-7
-2.041148642698924E-8
-8.715627094109853E-8
-3.550667315721512E-8
-6.624031811952591E-8
-4.797974335295814E-8
-1.0675285011529922E-7
-8.676821986834209E-8
-1.99458251396815E-8
-2.3438284794489544E-8
-6.802535305420558E-8
-3.31589641670386E-8
-5.153318246205648E-8
-4.276322821776072E-8
-9.755603969097137E-8
-8.517721047004063E-8
-8.269368360439937E-8
-1.6142924626668293E-8
-7.136259227991104E-8
-2.1963690718015034E-8
-2.9414271314938862E-8
-6.010911116997401E-8
-3.259629011154175E-8
-4.338410993417104E-8
-3.023305907845497E-8
-1.22624138991038E-8
-7.019843906164169E-8
-5.163019523024559E-8
-7.949226225415866E-8
-6.534780065218608E-8
-6.521198277672131E-8
-1.8316010634104412E-8
-5.8401686449845634E-8
-2.1109978357950847E-8
-3.3682833115259804E-8
-4.63721031943957E-8
-3.9358080054322876E-8
-3.35775049669402E-8
-1.4745940764745077E-8
-1.5599653124809265E-8
-9.080395102500916E-9
-3.408786142244935E-8
-1.6009272722309713E-8
-5.225107694665591E-8
-3.744207788258791E-8
-5.727633833885193E-8
-5.3454035272200905E-8
-5.04272369047006E-8
-2.6387472947438557E-8
-4.13662443558375E-8
-2.5688981016476948E-8
-3.042320410410563E-8
-3.577830890814463E-8
-3.438132504622141E-8
-3.1269155442714694E-8
-1.4202669262886047E-8
-1.4590720335642496E-8
4.113341371218364E-9
-8.925174673398336E-9
6.20881716410319E-10
1.0191081358431238E-9
1.70766725204885E-8
-2.2482449679728234E-8
-7.6940859609446E-9
-3.8572276631991066E-8
-2.6368070393800735E-8
-4.480049634973208E-8
-4.2084138840436935E-8
-3.699096851050854E-8
-2.3127843936284382E-8
-3.236345946788788E-8
-2.7939677238464355E-8
-2.673671891291936E-8
-3.2518679896990456E-8
-2.648448571562767E-8
-1.4202669262886047E-8
-1.816079020500183E-8
-2.483526865641276E-9
-5.044663945833842E-9
-4.5013924439748125E-9
-3.4924596548080444E-9
0
3.064633347094059E-8
4.416021207968394E-8
7.12646297529318E-9
2.1274900063872337E-8
-1.3879412582203562E-8
-1.206933812151571E-9
-2.7973631707330544E-8
-1.8283792257989262E-8
-3.6030542105436325E-8
-3.1315721571445465E-8
-2.9181440671284992E-8
-2.0256265997886658E-8
-2.9200843224922817E-8
-2.4136776725451153E-8
-2.8938908750812214E-8
-2.632926528652509E-8
-2.7811620384454728E-8
-1.3892228404680887E-8
-1.862645149230957E-8
-3.259629011154175E-9
-2.483526865641276E-9
6.984919309616089E-10
-3.958120942115784E-9
3.647680083910624E-9
-5.432715018590292E-10
3.802900513013204E-9
5.6325613210598626E-8
7.070290545622508E-8
3.31589641670386E-8
4.320948695143064E-8
1.1204974725842476E-8
2.123609495659669E-8
-7.516424223770931E-9
2.946999681322874E-9
-1.9948250458886225E-8
-1.1505344825006128E-8
-2.6930744449297588E-8
-2.4951683978239696E-8
-2.000888343900442E-8
-2.1032368143399555E-8
-2.248755966623624E-8
-2.2118911147117615E-8
-2.325396053493023E-8
-2.369883337191173E-8
-1.0322158535321554E-8
-1.5522042910257976E-8
-5.122274160385132E-9
-4.579002658526103E-9
-6.20881716410319E-10
3.725290298461914E-9
1.862645149230957E-9
-1.0865430037180583E-9
4.035731156667073E-9
8.149072527885437E-9
8.537123600641886E-10
8.199519167343776E-8
5.312419186035792E-8
6.076879799365997E-8
2.9841127494970955E-8
3.923196345567703E-8
1.2597107949356237E-8
2.294351967672507E-8
-2.640935766369997E-9
6.0366195005675154E-9
-1.3748765089379352E-8
-6.464631496783113E-9
-2.198309327165286E-8
-1.892719107369582E-8
-1.5432306099683046E-8
-1.6453365484873455E-8
-1.9363748530546825E-8
-1.862645149230957E-8
-1.9441358745098114E-8
-1.7276033759117127E-8
-7.2177499532699585E-9
-1.4513110121091207E-8
-3.647680083910624E-9
-8.925174673398336E-9
6.596868236859639E-9
-7.761021455128988E-10
4.423782229423523E-9
0
-2.561137080192566E-9
7.761021455128988E-9
3.337239225705465E-9
3.802900513013204E-9
8.832042415936787E-8
8.41183854000909E-8
7.2022279103597E-8
4.718701044718424E-8
5.587935447692871E-8
2.9841127494970955E-8
3.4148494402567543E-8
1.541532886524995E-8
2.114878346522649E-8
1.2595648968272144E-9
7.106185269852479E-9
-9.734804962135968E-9
-3.120561586911208E-9
-1.4833252256115278E-8
-1.5473536526163418E-8
-1.093776328768096E-8
-1.556084801753362E-8
-1.5754873553911846E-8
-1.7093649754921596E-8
-1.6530975699424744E-8
-6.20881716410319E-9
-1.179675261179606E-8
1.5289212266604107E-8
1.30385160446167E-8
-1.6298145055770874E-9
-7.0625295241673785E-9
1.3581787546475729E-8
6.596868236859639E-9
1.0399768749872843E-8
0
-5.277494589487712E-9
5.975986520449321E-9
9.080395102500916E-9
6.51925802230835E-9
8.715627094109853E-8
7.743947207927704E-8
7.213093340396881E-8
7.031485438346863E-8
6.849877536296844E-8
5.034962669014931E-8
3.9775234957536064E-8
3.892152259747187E-8
2.9414271314938862E-8
3.356641779343287E-8
1.4086253941059113E-8
2.2215923915306728E-8
9.798289587100347E-9
3.080155390004317E-9
-5.734780946416625E-9
-1.3444179103316856E-9
-1.179917793100079E-8
-1.3014262852569422E-8
-7.918667203436295E-9
-1.288329561551412E-8
-1.280568540096283E-8
-1.3504177331924438E-8
-1.2863893061876297E-8
1.0816923653086027E-8
2.6765822743376095E-8
-6.44164780775706E-9
-1.0749014715353647E-8
1.83936208486557E-8
1.4978771408398945E-8
-2.7551626165707907E-9
-5.5103252331415815E-9
1.4125059048334757E-8
7.605801026026407E-9
1.0938189613322416E-8
3.802900513013204E-9
-1.319373647371928E-9
5.277494589487712E-9
1.1951973040898642E-8
4.734223087628682E-9
4.8739214738210045E-8
6.013682910374233E-8
5.677187194426855E-8
6.511497000853221E-8
5.4761767387390134E-8
4.352720376724998E-8
3.8145420451958976E-8
4.600733518600464E-8
3.68745531886816E-8
2.855501536812101E-8
1.5851886322100956E-8
1.9538371513287227E-8
8.750551690657934E-9
4.903995431959629E-9
-3.798840945516228E-9
2.3283064365386963E-10
-1.0545287902156511E-8
-9.645494477202495E-9
-5.872910454248388E-9
3.734603524208069E-8
-1.0904235144456228E-8
-9.604264050722122E-9
-1.0671404500802359E-8
2.5711155363491604E-8
-5.316299696763356E-9
-3.6088749766349792E-9
2.1711457520723343E-8
1.9068829715251924E-8
-2.522331972916921E-9
-2.5999421874682107E-9
1.726342209925254E-8
1.194833506209155E-8
1.002263161353767E-8
2.7939677238464355E-9
-1.241763432820638E-9
1.0554989178975424E-8
1.1563921968142191E-8
1.0554989178975424E-8
3.75633438428243E-8
4.353933036327362E-8
4.8495296921048844E-8
4.8038600652944297E-8
4.3534782889764756E-8
3.748573362827301E-8
3.373376481855909E-8
2.4694600142538548E-8
1.4280279477437338E-8
1.7648562788963317E-8
1.1455267667770386E-8
5.502702801355294E-9
-2.3780254802356162E-9
6.548361852765083E-10
-7.865310180932283E-9
-6.946114202340444E-9
-4.808195323372881E-9
4.520794997612635E-8
-7.290509529411793E-9
-8.427074741727362E-9
-8.321876521222293E-9
2.9453076422214508E-8
-4.771512370401372E-9
-2.9685907065868378E-9
2.5407643988728523E-8
-2.3283064365386963E-9
-2.8812792152166367E-9
1.6671644213298958E-8
1.103617250919342E-8
1.4830480462738445E-8
6.710858239481847E-9
-1.1641532182693481E-9
8.934875950217247E-9
1.0302755981683731E-8
8.573503388712803E-9
2.8715779383977253E-8
3.934837877750397E-8
3.598082306173941E-8
3.4536848640224584E-8
3.3051946957129985E-8
3.064148283253113E-8
2.336309989914298E-8
1.87295275585105E-8
1.39282617185797E-8
8.231533380846182E-9
3.1638289025674262E-9
-2.08092387765646E-9
-1.1757947504520416E-9
-5.852901570809384E-9
-5.566107574850321E-9
-3.599173699816068E-9
4.908846070369085E-8
-6.6834867798856325E-9
-6.0704223869834095E-9
3.3915663758913674E-8
-4.919002094538882E-9
-3.99753237919261E-9
1.924733320871989E-8
-4.009052645415068E-9
-2.1003264312942824E-9
1.6142924626668293E-8
2.5029294192790984E-10
1.2689270079135895E-8
1.2960905830065409E-8
4.814605095556804E-9
9.18017966406686E-9
6.495974957942962E-9
1.3504177331924438E-8
2.359350522359212E-8
2.623225251833598E-8
2.295322095354398E-8
2.0670995581895113E-8
1.939042704179883E-8
1.626904122531414E-8
1.2772943591699004E-8
9.468446175257364E-9
5.165929906070232E-9
1.697723443309466E-11
-8.814302938325064E-10
-5.471520125865936E-9
-5.896436050534248E-9
-4.395198110224945E-9
-2.7765054255723955E-9
4.3655745685100555E-8
-5.765156986724053E-9
-5.948095349594951E-9
-4.874891601502895E-9
2.60770320892334E-8
-3.118267548935754E-9
-3.6088749766349792E-9
1.5987704197565716E-8
-1.9457989505359106E-9
1.210719347000122E-8
1.0865430037180583E-9
1.0632599393526713E-8
8.071462313334147E-9
4.617807765801747E-9
3.744692852099736E-9
1.334895690282186E-8
1.7229467630386353E-8
1.4357889691988627E-8
1.2184803684552511E-8
1.893689235051473E-8
1.6763806343078613E-8
1.311612625916799E-8
1.0787819822629293E-8
5.549130340417226E-9
3.3760443329811096E-9
2.841261448338628E-9
-9.143453401823839E-10
-5.20607760076278E-9
-3.892637323588133E-9
-5.776837497251108E-9
3.127691646416982E-8
-5.463724456993597E-9
-4.207928820202748E-9
2.0838342607021332E-8
-4.00662732621034E-9
-3.2499277343352637E-9
1.2766880293687185E-8
-1.3581787546475728E-9
8.96397978067398E-9
1.6686196128527324E-9
1.1699739843606949E-8
4.753625641266505E-9
5.141676714022954E-9
9.623666604359945E-9
1.0477378964424133E-8
1.5677263339360554E-8
1.5056381622950237E-8
1.4590720335642496E-8
1.249524454275767E-8
1.1020650466283163E-8
6.014791627724965E-9
3.06560347477595E-9
1.0865430037180583E-9
-2.3730516810852955E-9
-4.439887864767418E-9
-5.789583415857383E-9
-5.751038164210816E-9
2.138161410888036E-8
-5.243540120621522E-9
-4.709211983329927E-9
1.4551915228366852E-8
-4.100456862943247E-9
-2.713932190090418E-9
1.2068388362725576E-8
-8.391604448358218E-10
7.508788257837296E-9
1.1350493878126144E-9
4.617807765801747E-9
2.8715779383977256E-9
9.623666604359945E-9
8.304292956988016E-9
5.122274160385132E-9
1.0011717677116394E-8
9.623666604359945E-9
9.468446175257364E-9
5.587935447692871E-9
6.014791627724965E-9
-1.0477378964424133E-9
-3.337239225705465E-9
-6.589469118504591E-9
-6.012366308520238E-9
-5.916808731853962E-9
-5.217467939170699E-9
1.3077321151892344E-8
-6.073605618439615E-9
-5.593998745704691E-9
1.045797641078631E-8
-4.760408955917228E-9
-3.758752124364643E-9
7.450580596923828E-9
-2.8085196390748024E-9
5.11257288356622E-9
-5.529727786779404E-10
2.5126306960980096E-9
9.778887033462524E-9
6.51925802230835E-9
6.984919309616089E-9
6.1312069495519E-9
5.820766091346741E-9
3.1820187966028848E-9
2.0178655783335366E-9
-5.238689482212067E-9
-5.1998843749364214E-9
-7.178944845994313E-9
-7.052828247348468E-9
-5.903919892651694E-9
-7.169243569175403E-9
1.05355866253376E-8
-7.05813363310881E-9
-6.711312986832733E-9
7.896839330593744E-9
-5.975531773098434E-9
-4.304998431810721E-9
3.880510727564494E-9
-3.1481211711555566E-9
2.7212081477046013E-9
-7.736768263081709E-10
2.561137080192566E-9
2.3283064365386963E-10
4.6566128730773926E-9
5.044663945833842E-9
3.337239225705465E-9
0
-3.337239225705465E-9
-8.537123600641886E-9
-6.325232485930125E-9
-7.804677200814089E-9
-7.427297532558441E-9
-8.575928707917532E-9
-8.420708278814951E-9
1.0263950874408087E-8
-8.58805530394117E-9
-8.42696105488964E-9
5.432715018590291E-9
-7.677537420628747E-9
-6.340693895860265E-9
9.240466170012951E-10
-4.867738804629577E-9
-2.1271281032871534E-9
-2.1730860074361167E-9
4.811833302179973E-9
3.104408582051595E-9
5.432715018590292E-10
-3.104408582051595E-10
-4.268561800320943E-9
-7.761021455128988E-9
-6.05359673500061E-9
-1.0671404500802359E-8
-8.136599457689694E-9
-9.992315123478571E-9
-1.020574321349462E-8
7.239577826112509E-9
-1.0875131313999494E-8
-9.37385872627298E-9
3.5146522729216184E-10
-9.867430132241376E-9
-8.662046487491656E-9
-3.1337184699016993E-9
-6.3848801801213995E-9
3.4148494402567544E-9
2.1730860074361167E-9
9.313225746154785E-10
-3.880510727564494E-10
-4.967053731282552E-9
-8.614733815193176E-9
-1.0244548320770264E-8
-1.3542982439200083E-8
-9.623666604359945E-9
-1.3085082173347474E-8
-1.1214676002661387E-8
-1.3960137342413267E-8
3.3437400996187233E-10
-1.249524454275767E-8
-1.3984390534460545E-8
-5.013783758537708E-9
-1.3171908600876728E-8
-1.111948222387582E-8
-8.660208550281823E-9
1.7074247201283772E-9
1.0089327891667683E-9
-3.958120942115784E-9
-5.975986520449321E-9
-1.334895690282186E-8
-1.311612625916799E-8
-1.5444432695706684E-8
-1.383402074376742E-8
-1.5350191720894405E-8
-1.721006507674853E-8
-1.5851886322100956E-8
-7.24400687583208E-9
-1.74428957204024E-8
-1.73555842290322E-8
-1.1655662509231965E-8
-1.670074804375569E-8
-1.5158245029548805E-8
-6.20881716410319E-10
-3.104408582051595E-9
-7.450580596923828E-9
-7.761021455128988E-9
-1.257285475730896E-8
-1.909211277961731E-8
-1.753990848859151E-8
-1.89291313290596E-8
-1.9033905118703842E-8
-1.9654786835114162E-8
-1.9383151084184647E-8
-1.5066082899769146E-8
-2.1420419216156006E-8
-2.263307881851991E-8
-1.8844730220735073E-8
-2.2283832853039105E-8
-4.811833302179973E-9
-5.432715018590291E-9
-9.158005317052206E-9
-1.6608585913976032E-8
-1.5987704197565716E-8
-1.8767120006183784E-8
-2.4746571268354145E-8
-2.0993563036123913E-8
-2.382633586724599E-8
-2.499048908551534E-8
-2.332186947266261E-8
-3.069483985503515E-8
-2.7474015951156616E-8
-2.6998653387029965E-8
-7.838631669680277E-9
-5.5103252331415815E-9
-2.017865578333537E-8
-1.862645149230957E-8
-2.6387472947438557E-8
-2.435990609228611E-8
-2.4051405489444732E-8
-2.5960616767406464E-8
-2.9724712173144024E-8
-3.306195139884949E-8
-3.327537948886553E-8
-3.7058877448240914E-8
-3.568129613995552E-8
2.4059166510899863E-9
-7.528190811475119E-9
-9.934107462565104E-9
-2.405916651089986E-8
-3.072394368549188E-8
-2.87545844912529E-8
-3.271270543336868E-8
-3.461415568987528E-8
-4.3190084397792816E-8
-4.495571677883466E-8
-4.877801984548569E-8
-2.8715779383977256E-9
-1.0322158535321554E-8
-2.8579961508512497E-8
-2.0673420901099842E-8
-2.6368070393800735E-8
-3.050081431865692E-8
-3.9270768562952675E-8
-4.691537469625473E-8
-6.150609503189723E-8
-6.154490013917287E-8
-9.002784887949625E-9
-2.0392083873351414E-8
-2.318605159719785E-8
-2.8279221927126248E-8
-3.8533471524715424E-8
-4.885563006003698E-8
-7.019843906164169E-8
-7.819229116042455E-8
-2.1653249859809875E-8
-2.5184514621893566E-8
-3.668745713574546E-8
-5.514205743869146E-8
-6.814176837603252E-8
-8.622494836648305E-8
-1.6919026772181194E-8
-3.577830890814463E-8
-4.8335641622543334E-8
-7.12461769580841E-8
-9.743962436914444E-8
-3.818422555923462E-8
-5.8141137872423446E-8
-9.189049402872722E-8
-5.1874667406082156E-8
-8.335337042808533E-8
2.477318048477173E-8
-4.237517714500427E-8
2.561137080192566E-8
3.119930624961853E-8
3.4148494402567543E-8
1.7850349346796673E-8
5.277494589487712E-9
-6.829698880513509E-9
8.459513386090597E-9
-2.2506962219874065E-8
3.849466641743978E-8
-6.984919309616089E-10
-1.30385160446167E-8
7.295360167821248E-9
-3.104408582051595E-10
3.725290298461914E-9
2.3903946081797283E-8
-7.605801026026407E-9
-1.3659397761027018E-8
-7.140139738718669E-9
-1.6841416557629902E-8
-9.934107462565104E-9
-1.22624138991038E-8
-1.1641532182693481E-8
7.3729703823725385E-9
1.940255363782247E-9
5.122274160385132E-9
0
1.1486311753590902E-8
8.96397978067398E-9
8.149072527885437E-10
1.020574321349462E-8
-1.6783208896716435E-9
-5.723753323157628E-9
7.566995918750763E-10
-4.118897815412007E-11
-8.584801018211389E-10
1.2611659864584606E-9
-6.08271951326363E-11
-1.1738544950882594E-9
-1.6103657666614406E-9
-9.698967555020015E-11
6.790893773237864E-10
-5.917778859535853E-9
-3.443953270713488E-9
-3.4924596548080444E-10
3.4536545475323996E-9
3.511862208445867E-9
1.7074247201283772E-9
2.8715779383977256E-9
1.940255363782247E-10
-1.893689235051473E-8
-8.769954244295755E-9
-1.8199595312277477E-8
-2.2041300932566326E-8
-2.3438284794489544E-8
-2.4136776725451153E-8
-1.971299449602763E-8
-2.6387472947438557E-8
-2.8250118096669514E-8
-3.026798367500305E-8
-4.0202091137568154E-8
-5.556891361872355E-8
-3.337239225705465E-8
-6.860742966334026E-8
-6.604629258314769E-8
-4.377216100692749E-8
-4.377216100692749E-8
-2.7396405736605327E-8
-2.0644317070643108E-8
-3.5235037406285606E-8
-2.2724270820617674E-8
4.98257577419281E-8
-5.494803190231323E-8
-2.1187588572502136E-8
5.494803190231323E-8
-4.0512531995773315E-8
</DataArray>
<DataArray type="Float64" Name="Electric_field,_y_component" Format="ascii">
-399999.99999964813
-399999.999999688
-399999.99999959534
-399999.9999995753
-399999.9999996512
-399999.99999959767
-399999.99999968306
-399999.9999997088
-399999.9999998116
-399999.99999963475
-399999.9999998402
-399999.9999998808
-399999.9999998201
-399999.99999992736
-399999.99999998725
-399999.999999875
-400000.000000016
-400000.00000004936
-399999.9999999579
-400000.00000008364
-400000.0000001171
-400000.00000013394
-400000.0000001515
-400000.00000017445
-400000.00000019395
-400000.00000005803
-400000.0000001218
-400000.0000002058
-400000.0000002214
-400000.0000002268
-400000.0000002296
-400000.00000014994
-400000.0000001865
-400000.00000023487
-400000.0000002392
-400000.00000023673
-400000.0000002361
-400000.00000021845
-400000.00000023097
-400000.00000023626
-400000.0000002388
-400000.00000021956
-400000.0000002035
-400000.0000002358
-400000.0000002335
-400000.0000001879
-400000.000000174
-400000.00000016904
-400000.0000001644
-400000.0000002324
-400000.0000002018
-400000.0000001477
-400000.0000001257
-400000.00000016904
-400000.00000016834
-400000.0000001054
-400000.0000000776
-400000.0000000386
-399999.99999998976
-400000.0000001264
-399999.99999995966
-399999.99999993667
-399999.9999998824
-399999.9999998181
-400000.0000000722
-400000.0000000073
-399999.999999752
-399999.9999996885
-399999.99999969266
-400000.0000000284
-399999.99999992194
-399999.99999983824
-399999.9999996855
-399999.99999953853
-399999.99999873247
-399999.9999996552
-399999.99999950174
-399999.9999996604
-399999.9999996714
-399999.9999995902
-399999.99999963725
-399999.9999996997
-399999.9999996391
-399999.99999967404
-399999.9999996852
-399999.99999976024
-399999.9999998156
-399999.9999997148
-399999.99999967543
-399999.99999985535
-399999.99999987584
-399999.9999997385
-399999.99999969016
-399999.99999992683
-399999.999999957
-399999.9999997472
-399999.99999971036
-399999.99999999936
-400000.0000000559
-399999.9999997597
-399999.9999997367
-400000.0000000683
-400000.0000001172
-400000.0000001189
-400000.0000001476
-399999.99999976874
-399999.99999974185
-399999.9999997762
-399999.99999976903
-400000.00000015413
-400000.00000018906
-400000.0000001858
-400000.0000002181
-399999.9999997827
-399999.99999977817
-399999.9999997932
-399999.9999997774
-400000.0000002058
-400000.0000002309
-400000.0000002167
-400000.0000002357
-399999.9999998021
-399999.9999997683
-399999.99999979645
-399999.99999977526
-400000.0000002195
-400000.00000023353
-400000.00000021554
-400000.0000002319
-399999.99999979744
-399999.99999976734
-399999.9999998051
-399999.9999997726
-400000.000000201
-400000.00000020146
-400000.00000017876
-400000.00000017066
-399999.999999804
-399999.99999977153
-399999.99999979715
-399999.9999997681
-400000.00000015553
-400000.0000001678
-400000.0000001271
-400000.0000001255
-399999.99999979587
-399999.99999975954
-399999.9999997919
-399999.99999977293
-400000.0000000838
-400000.0000000747
-399999.9999997925
-399999.99999975815
-400000.00000002485
-400000.0000000039
-399999.99999995553
-399999.99999992334
-399999.9999997913
-399999.9999997507
-399999.99999978114
-399999.99999973254
-399999.99999987986
-399999.9999998319
-399999.9999997841
-399999.9999996925
-399999.99999977654
-399999.9999997153
-399999.9999997705
-399999.99999971053
-399999.9999997067
-399999.99999967933
-399999.9999996414
-399999.9999994389
-399999.99999974365
-399999.9999996896
-399999.99999973044
-399999.9999995958
-399999.9999996067
-399999.9999997768
-399999.99999968195
-399999.99999964144
-399999.9999997591
-399999.9999997834
-399999.9999997097
-399999.99999967776
-399999.9999998512
-399999.999999887
-399999.9999997338
-399999.9999996975
-399999.9999999185
-399999.99999995093
-399999.99999975134
-399999.9999997147
-399999.99999998655
-400000.00000005105
-399999.9999997611
-399999.9999997124
-400000.000000037
-400000.00000007125
-399999.99999976717
-399999.9999997279
-400000.0000000748
-400000.0000001036
-399999.9999997746
-399999.9999997352
-400000.00000009965
-400000.0000001036
-399999.9999997802
-399999.99999973614
-400000.000000114
-400000.0000001129
-399999.9999997879
-399999.99999974744
-400000.00000012916
-400000.0000001327
-399999.99999978853
-399999.99999974575
-400000.00000014814
-400000.0000001672
-399999.9999997856
-399999.9999997532
-400000.00000016514
-400000.0000001812
-399999.9999997884
-399999.9999997616
-400000.00000017084
-400000.0000001807
-399999.99999978516
-399999.99999975227
-400000.0000001693
-400000.0000001674
-399999.99999979226
-399999.9999997532
-400000.0000001629
-400000.0000001642
-399999.99999978486
-399999.9999997534
-400000.00000015245
-400000.0000001583
-399999.99999977864
-399999.99999975134
-400000.00000013894
-400000.00000014226
-399999.9999997746
-399999.9999997698
-400000.0000001158
-400000.0000001192
-399999.9999997711
-399999.9999997602
-400000.00000007846
-400000.00000009313
-399999.9999997637
-399999.9999997588
-400000.0000000205
-399999.99999999645
-399999.9999997579
-399999.99999973906
-399999.99999996234
-399999.9999999244
-399999.99999973987
-399999.9999997054
-399999.99999987683
-399999.9999998302
-399999.99999972427
-399999.9999996775
-399999.9999998096
-399999.99999976374
-399999.99999968597
-399999.9999996149
-399999.9999997174
-399999.9999996402
-399999.99999962293
-399999.9999994547
-399999.99999975454
-399999.99999974447
-399999.9999998321
-399999.99999976746
-399999.999999812
-399999.99999989517
-399999.99999979
-399999.9999998754
-399999.99999982864
-399999.99999987
-399999.9999999686
-399999.99999980646
-399999.9999999402
-399999.9999998458
-399999.99999991735
-399999.9999998929
-400000.0000000301