<?xml version="1.0" encoding="UTF-8"?>
<VTKFile type="UnstructuredGrid" version="0.1" byte_order="LittleEndian">
<UnstructuredGrid>
<Piece NumberOfPoints="3294" NumberOfCells="6372">
<PointData>
<DataArray type="Float64" Name="Material_settings" Format="ascii">
0
0
0
0
0
0
0
0
0
0
0
0
0
0
0
0
0
0
0
0
0
0
0
0
0
0
0
0
0
0
0
0
0
0
0
0
0
0
0
0
0
0
0
0
0
0
0
0
0
0
0
0
0
0
0
0
0
0
0
0
0
0
0
0
0
0
0
0
0
0
0
0
0
0
0
0
0
0
0
0
0
0
0
0
0
0
0
0
0
0
0
0
0
0
0
0
0
0
0
0
0
0
0
0
0
0
0
0
0
0
0
0
0
0
0
0
0
0
0
0
0
0
0
0
0
0
0
0
0
0
0
0
0
0
0
0
0
0
0
0
0
0
0
0
0
0
0
0
0
0
0
0
0
0
0
0
0
0
0
0
0
0
0
0
0
0
0
0
0
0
0
0
0
0
0
0
0
0
0
0
0
0
0
0
0
0
0
0
0
0
0
0
0
0
0
0
0
0
0
0
0
0
0
0
0
0
0
0
0
0
0
0
0
0
0
0
0
0
0
0
0
0
0
0
0
0
0
0
0
0
0
0
0
0
0
0
0
0
0
0
0
0
0
0
0
0
0
0
0
0
0
0
0
0
0
0
0
0
0
0
0
0
0
0
0
0
0
0
0
0
0
0
0
0
0
0
0
0
0
0
0
0
0
0
0
0
0
0
0
0
0
0
0
0
0
0
0
0
0
0
0
0
0
0
0
0
0
0
0
0
0
0
0
0
0
0
0
0
0
0
0
0
0
0
0
0
0
0
0
0
0
0
0
0
0
0
0
0
0
0
0
0
0
0
0
0
0
0
0
0
0
0
0
0
0
0
0
0
0
0
0
0
0
0
0
0
0
0
0
0
0
0
0
0
0
0
0
0
0
0
0
0
0
0
0
0
0
0
0
0
0
0
0
0
0
0
0
0
0
0
0
0
0
0
0
0
0
0
0
0
0
0
0
0
0
0
0
0
0
0
0
0
0
0
0
0
0
0
0
0
0
0
0
0
0
0
0
0
0
0
0
0
0
0
0
0
0
0
0
0
0
0
0
0
0
0
0
0
0
0
0
0
0
0
0
0
0
0
0
0
0
0
0
0
0
0
0
0
0
0
0
0
0
0
0
0
0
0
0
0
0
0
0
0
0
0
0
0
0
0
0
0
0
0
0
0
0
0
0
0
0
0
0
0
0
0
0
0
0
0
0
0
0
0
0
0
0
0
0
0
0
0
0
0
0
0
0
0
0
0
0
0
0
0
0
0
0
0
0
0
0
0
0
0
0
0
0
0
0
0
0
0
0
0
0
0
0
0
0
0
0
0
0
0
0
0
0
0
0
0
0
0
0
0
0
0
0
0
0
0
0
0
0
0
0
0
0
0
0
0
0
0
0
0
0
0
0
0
0
0
0
0
0
0
0
0
0
0
0
0
0
0
0
0
0
0
0
0
0
0
0
0
0
0
0
0
0
0
0
0
0
0
0
0
0
0
0
0
0
0
0
0
0
0
0
0
0
0
0
0
0
0
0
0
0
0
0
0
0
0
0
0
0
0
0
0
0
0
0
0
0
0
0
0
0
0
0
0
0
0
0
0
0
0
0
0
0
0
0
0
0
0
0
0
0
0
0
0
0
0
0
0
0
0
0
0
0
0
0
0
0
0
0
0
0
0
0
0
0
0
0
0
0
0
0
0
0
0
0
0
0
0
0
0
0
0
0
0
0
0
0
0
0
0
0
0
0
0
0
0
0
0
0
0
0
0
0
0
0
0
0
0
0
0
0
0
0
0
0
0
0
0
0
0
0
0
0
0
0
0
0
0
0
0
0
0
0
0
0
0
0
0
0
0
0
0
0
0
0
0
0
0
0
0
0
0
0
0
0
0
0
0
0
0
0
0
0
0
0
0
0
0
0
0
0
0
0
0
0
0
0
0
0
0
0
0
0
0
0
0
0
0
0
0
0
0
0
0
0
0
0
0
0
0
0
0
0
0
0
0
0
0
0
0
0
0
0
0
0
0
0
0
0
0
0
0
0
0
0
0
0
0
0
0
0
0
0
0
0
0
0
0
0
0
0
0
0
0
0
0
0
0
0
0
0
0
0
0
0
0
0
0
0
0
0
0
0
0
0
0
0
0
0
0
0
0
0
0
0
0
0
0
0
0
0
0
0
0
0
0
0
0
0
0
0
0
0
0
0
0
0
0
0
0
0
0
0
0
0
0
0
0
0
0
0
0
0
0
0
0
0
0
0
0
0
0
0
0
0
0
0
0
0
0
0
0
0
0
0
0
0
0
0
0
0
0
0
0
0
0
0
0
0
0
0
0
0
0
0
0
0
0
0
0
0
0
0
0
0
0
0
0
0
0
0
0
0
0
0
0
0
0
0
0
0
0
0
0
0
0
0
0
0
0
0
0
0
0
0
0
0
0
0
0
0
0
0
0
0
0
0
0
0
0
0
0
0
0
0
0
0
0
0
0
0
0
0
0
0
0
0
0
0
0
0
0
0
0
0
0
0
0
0
0
0
0
0
0
0
0
0
0
0
0
0
0
0
0
0
0
0
0
0
0
0
0
0
0
0
0
0
0
0
0
0
0
0
0
0
0
0
0
0
0
0
0
0
0
0
0
0
0
0
0
0
0
0
0
0
0
0
0
0
0
0
0
0
0
0
0
0
0
0
0
0
0
0
0
0
0
0
0
0
0
0
0
0
0
0
0
0
0
0
0
0
0
0
0
0
0
0
0
0
0
0
0
0
0
0
0
0
0
0
0
0
0
0
0
0
0
0
0
0
0
0
0
0
0
0
0
0
0
0
0
0
0
0
0
0
0
0
0
0
0
0
0
0
0
0
0
0
0
0
0
0
0
0
0
0
0
0
0
0
0
0
0
0
0
0
0
0
0
0
0
0
0
0
0
0
0
0
0
0
0
0
0
0
0
0
0
0
0
0
0
0
0
0
0
0
0
0
0
0
0
0
0
0
0
0
0
0
0
0
0
0
0
0
0
0
0
0
0
0
0
0
0
0
0
0
0
0
0
0
0
0
0
0
0
0
0
0
0
0
0
0
0
0
0
0
0
0
0
0
0
0
0
0
0
0
0
0
0
0
0
0
0
0
0
0
0
0
0
0
0
0
0
0
0
0
0
0
0
0
0
0
0
0
0
0
0
0
0
0
0
0
0
0
0
0
0
0
0
0
0
0
0
0
0
0
0
0
0
0
0
0
0
0
0
0
0
0
0
0
0
0
0
0
0
0
0
0
0
0
0
0
0
0
0
0
0
0
0
0
0
0
0
0
0
0
0
0
0
0
0
0
0
0
0
0
0
0
0
0
0
0
0
0
0
0
0
0
0
0
0
0
0
0
0
0
0
0
0
0
0
0
0
0
0
0
0
0
0
0
0
0
0
0
0
0
0
0
0
0
0
0
0
0
0
0
0
0
0
0
0
0
0
0
0
0
0
0
0
0
0
0
0
0
0
0
0
0
0
0
0
0
0
0
0
0
0
0
0
0
0
0
0
0
0
0
0
0
0
0
0
0
0
0
0
0
0
0
0
0
0
0
0
0
0
0
0
0
0
0
0
0
0
0
0
0
0
0
0
0
0
0
0
0
0
0
0
0
0
0
0
0
0
0
0
0
0
0
0
0
0
0
0
0
0
0
0
0
0
0
0
0
0
0
0
0
0
0
0
0
0
0
0
0
0
0
0
0
0
0
0
0
0
0
0
0
0
0
0
0
0
0
0
0
0
0
0
0
0
0
0
0
0
0
0
0
0
0
0
0
0
0
0
0
0
0
0
0
0
0
0
0
0
0
0
0
0
0
0
0
0
0
0
0
0
0
0
0
0
0
0
0
0
0
0
0
0
0
0
0
0
0
0
0
0
0
0
0
0
0
0
0
0
0
0
0
0
0
0
0
0
0
0
0
0
0
0
0
0
0
0
0
0
0
0
0
0
0
0
0
0
0
0
0
0
0
0
0
0
0
0
0
0
0
0
0
0
0
0
0
0
0
0
0
0
0
0
0
0
0
0
0
0
0
0
0
0
0
0
0
0
0
0
0
0
0
0
0
0
0
0
0
0
0
0
0
0
0
0
0
0
0
0
0
0
0
0
0
0
0
0
0
0
0
0
0
0
0
0
0
0
0
0
0
0
0
0
0
0
0
0
0
0
0
0
0
0
0
0
0
0
0
0
0
0
0
0
0
0
0
0
0
0
0
0
0
0
0
0
0
0
0
0
0
0
0
0
0
0
0
0
0
0
0
0
0
0
0
0
0
0
0
0
0
0
0
0
0
0
0
0
0
0
0
0
0
0
0
0
0
0
0
0
0
0
0
0
0
0
0
0
0
0
0
0
0
0
0
0
0
0
0
0
0
0
0
0
0
0
0
0
0
0
0
0
0
0
0
0
0
0
0
0
0
0
0
0
0
0
0
0
0
0
0
0
0
0
0
0
0
0
0
0
0
0
0
0
0
0
0
0
0
0
0
0
0
0
0
0
0
0
0
0
0
0
0
0
0
0
0
0
0
0
0
0
0
0
0
0
0
0
0
0
0
0
0
0
0
0
0
0
0
0
0
0
0
0
0
0
0
0
0
0
0
0
0
0
0
0
0
0
0
0
0
0
0
0
0
0
0
0
0
0
0
0
0
0
0
0
0
0
0
0
0
0
0
0
0
0
0
0
0
0
0
0
0
0
0
0
0
0
0
0
0
0
0
0
0
0
0
0
0
0
0
0
0
0
0
0
0
0
0
0
0
0
0
0
0
0
0
0
0
0
0
0
0
0
0
0
0
0
0
0
0
0
0
0
0
0
0
0
0
0
0
0
0
0
0
0
0
0
0
0
0
0
0
0
0
0
0
0
0
0
0
0
0
0
0
0
0
0
0
0
0
0
0
0
0
0
0
0
0
0
0
0
0
0
0
0
0
0
0
0
0
0
0
0
0
0
0
0
0
0
0
0
0
0
0
0
0
0
0
0
0
0
0
0
0
0
0
0
0
0
0
0
0
0
0
0
0
0
0
0
0
0
0
0
0
0
0
0
0
0
0
0
0
0
0
0
0
0
0
0
0
0
0
0
0
0
0
0
0
0
0
0
0
0
0
0
0
0
0
0
0
0
0
0
0
0
0
0
0
0
0
0
0
0
0
0
0
0
0
0
0
0
0
0
0
0
0
0
0
0
0
0
0
0
0
0
0
0
0
0
0
0
0
0
0
0
0
0
0
0
0
0
0
0
0
0
0
0
0
0
0
0
0
0
0
0
0
0
0
0
0
0
0
0
0
0
0
0
0
0
0
0
0
0
0
0
0
0
0
0
0
0
0
0
0
0
0
0
0
0
0
0
0
0
0
0
0
0
0
0
0
0
0
0
0
0
0
0
0
0
0
0
0
0
0
0
0
0
0
0
0
0
0
0
0
0
0
0
0
0
0
0
0
0
0
0
0
0
0
0
0
0
0
0
0
0
0
0
0
0
0
0
0
0
0
0
0
0
0
0
0
0
0
0
0
0
0
0
0
0
0
0
0
0
0
0
0
0
0
0
0
0
0
0
0
0
0
0
0
0
0
0
0
0
0
0
0
0
0
0
0
0
0
0
0
0
0
0
0
0
0
0
0
0
0
0
0
0
0
0
0
0
0
0
0
0
0
0
0
0
0
0
0
0
0
0
0
0
0
0
0
0
0
0
0
0
0
0
0
0
0
0
0
0
0
0
0
0
0
0
0
0
0
0
0
0
0
0
0
0
0
0
0
0
0
0
0
0
0
0
0
0
0
0
0
0
0
0
0
0
0
0
0
0
0
0
0
0
0
0
0
0
0
0
0
0
0
0
0
0
0
0
0
0
0
0
0
0
0
0
0
0
0
0
0
0
0
0
0
0
0
0
0
0
0
0
0
0
0
0
0
0
0
0
0
0
0
0
0
0
0
0
0
0
0
0
0
0
0
0
0
0
0
0
0
0
0
0
0
0
0
0
0
0
0
0
0
0
0
0
0
0
0
0
0
0
0
0
0
0
0
0
0
0
0
0
0
0
0
0
0
0
0
0
0
0
0
0
0
0
0
0
0
0
0
0
0
0
0
0
0
0
0
0
0
0
0
0
0
0
0
0
0
0
0
0
0
0
0
0
0
0
0
0
0
0
0
0
0
0
0
0
0
0
0
0
0
0
0
0
0
0
0
0
0
0
0
0
0
0
0
0
0
0
0
0
0
0
0
0
0
0
0
0
0
0
0
0
0
0
0
0
0
0
0
0
0
0
0
0
0
0
0
0
0
0
0
0
0
0
0
0
0
0
0
0
0
0
0
0
0
0
0
0
0
0
0
0
0
0
0
0
0
0
0
0
0
0
0
0
0
0
0
0
0
0
0
0
0
0
0
0
0
0
0
0
0
0
0
0
0
0
0
0
0
0
0
0
0
0
0
0
0
0
0
0
0
0
0
0
0
0
0
0
0
0
0
0
0
0
0
0
0
0
0
0
0
0
0
0
0
0
0
0
0
0
0
0
0
0
0
0
0
0
0
0
0
0
0
0
0
0
0
0
0
0
0
0
0
0
0
0
0
0
0
0
0
0
0
0
0
0
0
0
0
0
0
0
0
0
0
0
0
0
0
0
0
0
0
0
0
0
0
0
0
0
0
0
0
0
0
0
0
0
0
0
0
0
0
0
0
0
0
0
0
0
0
0
0
0
0
0
0
0
0
0
0
0
0
0
0
0
0
0
0
0
0
0
0
0
0
0
0
0
0
0
0
0
0
0
0
0
0
0
0
0
0
0
0
0
0
0
0
0
0
0
0
0
0
0
0
0
0
0
0
0
0
0
0
0
0
0
0
0
0
0
0
0
0
0
0
0
0
0
0
0
0
0
0
0
0
0
0
0
0
0
0
0
0
0
0
0
0
0
0
0
0
0
0
0
0
0
0
0
0
0
0
0
0
0
0
0
0
0
0
0
0
0
0
0
0
0
0
0
0
0
0
0
0
0
0
0
0
0
0
0
0
0
0
0
0
0
0
0
0
0
0
0
0
0
0
0
0
0
0
0
0
0
0
0
0
0
0
0
0
0
0
0
0
0
0
0
0
0
0
0
0
0
0
0
0
0
0
0
0
0
0
0
0
0
0
0
0
0
0
0
0
0
0
0
0
0
0
0
0
0
0
0
0
0
0
0
0
0
0
0
0
0
0
0
0
0
0
0
0
0
0
0
0
0
0
0
0
0
0
0
0
0
0
0
0
0
0
0
0
0
0
0
0
0
0
0
0
0
0
0
0
0
0
0
0
0
0
0
0
0
0
0
0
0
0
0
0
0
0
0
0
0
0
0
0
0
0
0
0
0
0
0
0
0
0
0
0
0
0
0
0
0
0
0
0
0
0
0
0
0
0
0
0
0
0
0
0
0
0
0
0
0
0
0
0
0
0
0
0
0
0
0
0
0
0
0
0
0
0
0
0
0
</DataArray>
<DataArray type="Float64" Name="Electric_field,_r_component" Format="ascii">
321.0767396471871
-1.9854161856540788
-6.004926191613777
461.85711156134494
400.8482870730513
-0.541042361718913
919.1323213856667
756.5941004151371
1254.0763254087942
1367.9173397872946
468.05405541017535
-0.40240250795613974
537.6361285563811
-0.272386921918951
1725.742548523073
1803.2211199476733
605.685459679759
-0.3173087447648868
2182.117293123602
2221.2780610949653
676.7748632228371
-0.45262417959747836
2620.7955994634735
2618.708422426076
762.4038571550142
-0.6500935046157489
3035.277603936013
2992.613867075144
867.7790734793234
-0.882081059855409
3421.7662965047057
3340.6246098170327
3778.3538770260734
3660.9406324963397
992.2772841292414
-1.1753339665204596
4103.131995237772
3952.3362461684155
1141.5883058728261
-1.5210609950784904
4395.1099719054955
4214.134334549657
4653.7248073683
4446.164447400563
1322.1285084639676
-1.968168075371068
4879.191413182843
4648.712913079381
1542.5707197236964
-2.568239618636047
5072.266680031404
4822.465617020188
5234.113611279929
4968.444638054934
1814.5757337849645
-3.396134262846317
5366.219083487948
5087.943320857729
5470.311737681176
5182.463123094097
2154.3063019282904
-4.563095351739321
5548.28888937859
5253.654353606845
5602.155039116634
5303.262382416772
2584.31479057268
-6.244908600288909
5633.968141437363
5333.080328930945
5645.792854649791
5344.908686744243
3136.681017328461
-8.72789295729793
5639.661252257171
5340.521916918689
5617.541236809135
5321.641726347773
3858.151355441349
-12.497591848368756
4818.670223584457
-18.292296399866853
5581.312358851875
5289.916527312035
5532.748364182354
5246.906435244969
6125.367026282726
-27.382962761602055
5473.505606794391
5194.073091572209
5405.116190203563
5132.7735776284635
7948.923033429969
-42.207307675038464
5328.985540744422
5064.257715914922
5246.392614554643
4989.668032649691
10571.422254273939
-68.70612305076793
14486.144650937116
-117.06785485260964
5158.500727595519
4910.042751129018
5066.192235123424
4826.318379219058
20602.883888322413
-188.33082062068084
30321.688267535472
-343.8263803878799
46325.168526627276
39.07624827038186
204521.84937368386
15519.76268878067
3448.697552964712
385546.54739949177
4970.4169594431005
4739.334174498003
4871.9847454743385
4649.838624331674
68868.4033625668
939.6622758036634
165787.27902363776
1101.7283500766691
102916.00911738968
409389.6009553526
759275.5353072571
4771.800080509575
4558.496367414326
693365.6799368224
1104836.2713057708
4669.987114913577
4465.894065309995
4567.586863191701
4372.546427689861
946036.0332679768
1407175.5756736815
4464.222382188983
4278.89773955396
4360.118613196362
4185.3371805861825
1157955.1640639831
1654914.197503632
4256.230233973311
4092.127062178479
4160.2585771405165
3999.185948734943
1315637.051802875
1838784.1522068856
4145.4126573833055
1430803.6870992447
1951978.0835099223
4295.140806978433
4313.869241772394
1486013.072012039
1992921.2496890267
1494707.1036043633
1951875.353035724
4471.4614689137625
4448.156285404645
494276.640145616
392818.7758448838
756632.3663363582
237496.79710672845
21394.448663704097
7157.788827457775
1103094.3061636973
649681.7001840875
1406636.555623559
933198.5158691866
1155115.8081272172
1654888.7782447122
1319006.6595604115
1838438.1857069547
1426657.7166393085
4630.769277953077
4604.457911103945
2216.588901937939
162422.86680234454
4795.514893764198
4763.691322475526
111256.46559791297
803.5004669168653
4963.964939687144
4925.51556059788
76518.1027235154
-281.2142010962901
48501.70286069849
-634.1381496983425
5135.119657012871
5089.529979259959
30422.149693379604
-319.30941948938806
5308.772159216499
5255.275767393595
20566.17906604263
-168.01287392666563
14464.731529441682
-89.6658168816939
5484.604109887373
5422.234781595442
10569.173858772789
-49.74775528422712
7939.238448613731
-29.25141222491705
5661.948262077742
5589.827523901079
6116.132023630799
-18.644781113175366
4811.225149297233
-12.511649183463305
5840.169316184707
5757.41470405702
3852.622523021477
-8.706894599832594
3132.61062762507
-6.225717702783489
6018.313011919851
5924.296471083449
2581.315847721504
-4.549320718409338
2152.0689369804845
-3.385983713417469
6195.596762695694
6089.714249608194
1812.9103278065352
-2.561679982036973
1541.3276812892
-1.9721003136364743
6371.172465967383
6252.854822836642
1321.0602466800385
-1.5379924287553877
6544.130833979216
6412.855281679968
1140.7318804947136
-1.2177338120915617
991.6647319355494
-0.9816932487495554
867.4464970353292
-0.816582387778908
6713.507461461278
6568.809560180312
763.09568576051
-0.6975177614367567
6878.2906917803
6719.776600344853
674.9338737169843
-0.6653110619129924
598.3200400175701
-0.7801783834584057
7037.431402077942
6864.790138000225
535.0129602795545
-1.332659055905727
481.81733296762104
-0.7498415467950205
7189.854682927068
7002.870041829738
478.4093084375948
-2.920513311905476
336.41452497603603
-5.838696539634839
7334.473316181878
7133.035070432903
461.5309736240306
7470.202870366037
7254.316840687495
754.3178536591877
919.7048003831878
7595.978143233452
7365.774729271623
1228.8347913382847
1368.2545569624247
7710.770594407557
7466.511361792295
1712.1589358364192
1803.27318618596
7813.606330904421
7555.688285282794
2181.38627794125
2221.233484171544
7903.58414084736
7632.541374545156
2623.039704981968
2618.658341261345
7979.89302173887
7696.3954952691565
3037.7525439424594
2992.5712004904635
8041.828624588986
7746.6779406621645
3424.4905818116
3340.586882029369
8088.808037988318
7782.930175743852
3780.35336403021
3660.9157339405115
8120.382369242623
7804.817465386489
4104.418441717299
3952.3228810216146
8136.246643015475
7812.136027497375
4395.837170360134
4214.127721993155
8136.246629409157
7804.8174387756735
4654.151220197401
4446.16090603817
8120.382328483184
7782.930122622027
4879.446294436842
4648.710971896381
8088.807970233058
7746.677861207766
5072.399397552518
4822.464711383761
8041.828530061665
7696.395389708389
5234.169852432514
4968.444299353869
7979.892900684805
7632.541243115062
5366.239436157601
5087.94321354758
7903.583993509169
7555.688128234498
5470.318372093908
5182.463092764083
7813.60615753461
7466.511179424706
5548.290816948905
5253.654345933309
7710.770395330968
7365.774522012565
5602.155498411467
5303.262380686181
7595.977918954716
7254.316609206474
5633.96818190168
5333.080328586667
7470.2026216980785
7133.034815761716
5645.792787760137
5344.908686685104
7334.473044373507
7002.869765462548
5639.661163415731
5340.521916907262
7189.8543897541385
6864.789841964618
5617.541147538014
5321.641726333629
7037.431089885649
6719.776287250444
5581.312273464922
5289.916527313685
6878.290363519273
6568.809233295983
5532.748282363939
5246.906435305175
6713.507120756753
6412.854945083042
5473.505529116014
5194.073090318921
6544.13048688737
6252.854481866593
5405.11634505219
5132.773579997884
6371.17191018235
6089.713911043102
5328.986243362015
5064.257441663493
6195.596459821977
5924.296139260298
5246.431132314155
4989.667058947477
6018.312657776769
5757.414391063328
5158.610297667949
4910.039768876741
5840.169355204232
5589.8272644185345
5066.588674758328
4826.3115788159
5661.944713538891
5422.235264236534
4971.305410811037
4739.321981835955
5484.3174595256905
5255.2787477065185
4873.6295788412
4649.817521677411
5307.781752356958
5089.5380466794695
4774.581186787352
4558.462601584189
5132.636693930991
4925.532167584538
4674.677877840906
4465.843696959007
4960.31579246841
4763.715831184847
4574.619921667841
4372.479089978461
4790.605756214325
4604.493391421187
4473.311240399819
4278.79429930433
4624.1328408401505
4448.199779094265
4375.191865948378
4185.192758972068
4460.2975343395565
4295.14193782903
4284.619852757484
4092.0708137917877
4300.8609390058555
4145.498954617103
4163.23150047934
3999.159845474438
864.7516784325029
1198.7727298784564
1631.8200667365018
1015.5526854234922
1474.5322026425533
1146.4966680940026
2121.413696262966
2023.4181879510932
1629.8352318321122
1993.2946944927448
1276.5509408504488
2605.742645892111
1822.0352517429467
2565.6545701454647
2506.1788415579163
2338.8397263368493
1428.822889550007
3066.7833142840923
1992.874804195725
3078.2505542266103
2492.907481580114
3069.8577010171452
3001.3804235015123
2940.9973488801215
1617.9449490951858
3496.5363924896906
2257.4211730329553
3556.4687812214347
2799.003993856915
3602.7900286569857
3255.4514176934513
3657.1335829990567
3602.7904132263625
4005.0669871863174
1843.616158354979
2564.1304032592743
3894.731406223485
4001.9548114175946
3166.1802442265034
4091.0743036527033
3664.182511751482
4167.631387518489
4064.255784325835
4344.560639324564
4319.99538405373
4257.5112475494
2113.09469536267
2927.5705336611913
3599.7930464676174
4413.032930014994
4566.31503813383
4144.4831187130185
4721.08189693169
4587.076313515562
4889.075548106291
4999.499766492819
5122.6410023347935
5530.260408545866
4584.475851247679
4782.275307391615
2437.5009140703864
3362.6125505573873
4115.795703069957
4714.467548721742
4986.7392456638045
5200.56619587204
5172.192495536758
5427.643467138657
5524.813655128804
5684.428984012007
5892.6450987787875
5979.457409196174
4873.827718736313
5107.396545477241
5354.9830877806235
5125.731895275104
2831.327621118447
3887.7940724196283
4736.896924902423
5401.757809363034
5906.259910190837
5616.827916799714
5895.45591573064
6272.498538112423
6194.387117318886
6584.569651386632
6514.980065857429
6784.48795442418
6896.043165956299
5389.7996457623185
5672.895367407745
5977.401004622225
5341.064041349503
5630.830945096609
3313.9855095336293
4527.055070097743
5487.258218403178
6227.0785837275325
6778.515020257658
7175.690084707846
6302.440332666602
6650.38031986966
7461.9763886229775
7017.841184446927
7653.555721389101
7378.0695128017605
7783.32888815236
5943.763241007963
6282.588211492296
6649.810206934596
5521.141638095006
5831.916328686096
6169.118427950627
5667.678879323357
3912.0398077234568
5312.694328428809
6401.743537707516
7223.6262006412335
7820.217376703076
8232.65289529571
8499.780342513783
7045.456466596719
7469.9742771968495
8655.845277171029
7924.941834369965
8731.263211227439
8412.556577480398
8891.369160078855
6535.726579169471
6935.292995902448
7370.514460677728
5995.028551002712
6351.30791319867
6739.920635353842
5782.680137378426
6122.501318066032
5868.341535905056
4662.401371322582
6289.223570962368
7527.477652491206
8438.11456529893
9077.113439547908
9495.88102199506
9742.16492540431
9856.512643907286
7843.384447009031
8356.313168900524
9872.953051745426
8926.95803622787
9810.157372069341
9625.536886534275
7164.723206508624
7629.6332757608325
8139.673066345441
6493.080820485542
6898.181149963067
7342.054148822004
6216.889624269727
6597.416064996806
5926.978478994948
6280.881994728184
5960.964343135604
5616.880226313845
7518.4548602168115
8929.299208261868
9933.83574224436
10608.399076311101
11019.790771085216
11226.931785807625
11279.311405788127
11218.910666508009
8694.865332975567
9304.056116427519
11084.073669782092
9970.85169044688
10894.50607939048
10701.40883053737
7829.338705336743
8365.569359035659
8955.9781931279
7013.92420675526
7470.979751324378
7973.719472749605
6667.44130026425
7090.78718592635
6317.229022918909
6706.356349856079
5972.676780479708
6328.681133219089
5964.4519213354315
6849.649949860177
9087.338758535023
10696.914687555147
11796.932967830895
12492.826282931279
12874.073821052434
13015.82951188621
12979.708759194202
12817.034483266072
12571.707912815162
9602.553079823041
10311.986319293084
12289.614764889897
11048.97547104801
11956.099973130875
8528.184508154858
9140.727186807819
9818.894323543916
7555.669639147857
8067.520302838452
8632.609313461415
7132.504942375061
7600.4830358376885
6717.3571285281505
7142.811158605783
6317.935150318012
6703.570481487589
5938.547236964
6287.590708318516
5897.113131270821
8469.556086284982
11120.76597855373
12956.296236803764
14145.887454751073
10639.210554511888
14836.68522481373
15150.931813888252
15186.184741259049
15020.720116408775
14715.592652173704
14325.254764639336
13891.045738561166
10570.122235786897
11407.201911059334
13465.014499082798
12320.414464200381
13224.378259457491
9258.047423748503
9951.596768480647
10722.363895341608
8115.83864417842
8684.957946792021
9315.172894519792
7609.801863596978
8123.844556038675
7125.35132858974
7587.903064082629
6668.00231935729
7083.6175593682465
6240.116930740391
6613.49847625942
5842.172650568595
6177.828880307953
5775.608316647452
13612.13052913337
13800.707192986409
15886.511758916662
17144.854018531903
17784.52341394633
17403.54944006732
17973.316547227103
17841.213807446667
17487.179881698055
16987.313776400017
16398.26213546589
15756.724519876414
15150.046690019022
11585.229595385279
12560.620695102616
14552.70547910836
13787.039770229274
10014.750733604082
10793.207899957613
11662.309437524935
8691.313602893313
9319.580998549141
10017.162208069727
8096.594358862087
8657.653941340657
7538.8696287225175
8038.899083094856
7020.903420264192
7466.533419752105
6542.717435369559
6940.273068777412
6102.8726620582165
6458.113574939412
5699.152993147533
6017.217740182804
5614.388167330743
17790.39563720518
22344.0035662828
19751.419066970877
21028.782826827664
21536.350130823394
21507.17584913612
24928.72873622821
21114.96207604279
20486.347486959236
19714.88048732067
18867.088794466632
17986.071513974002
17112.349268131064
16297.408066548533
12634.880101955941
13707.00257794807
15507.49880434239
14809.732464172452
10794.730053195273
11661.692071628107
12633.200916633106
9278.321738224235
9967.061162684919
10734.017139488928
8589.67785054353
9198.160914642232
7955.248202419335
8492.686148899802
7374.441281458382
7849.77026036374
6844.54263398417
7265.835110867153
6361.9288572222285
6736.269295671266
5922.63354400914
6256.193776030316
5522.747695967177
5820.727197907584
5425.528447408481
29283.947290305146
23835.87367676864
32919.35760763361
32008.350449464848
26123.954314140312
26363.515464422508
25971.73020189813
25180.634511517
32917.10219463848
24154.625320257677
23003.762529832875
21808.34770108736
20613.909501745522
19455.107814719773
18349.204107066587
17316.89840673019
13708.378285917812
14850.640705392405
16289.299870032526
11591.536007934987
12551.682586053337
13629.292952450138
9872.494453962223
10622.361564193581
11459.406514294698
9085.409435489515
9741.094229847853
8371.521073667138
8945.800918801871
7726.216404480608
8230.54551026653
7143.635013768992
7587.920982429544
6617.7554078615985
7010.446576649624
6142.619145796071
6490.928487369344
5712.943399563752
6022.838790979052
5323.700898485015
5600.425610902418
5218.201112130919
47010.13515299846
70311.0827013331
108085.28876489995
319531.69303841726
41904.03307203582
39319.314964168334
54164.19986631875
42099.643879562034
32663.943316703935
31676.8701120141
30273.202788525767
28667.421043737762
40982.3127934098
26983.04399929893
25313.97851804319
23706.87112224453
22184.708523180016
20756.01478611909
19435.049563602428
18221.509545828823
14832.27437421142
16168.512465173922
17500.62653684494
12398.11160896314
13454.638941996856
14648.294163302615
10468.810653932887
11279.51299956927
12185.841869823227
9579.728868636177
10281.661624640625
8784.44527042337
9394.436633792104
8073.59433387476
8605.786721411112
7437.832900473363
7904.15386719767
6868.481641649017
7278.509856258072
6719.676127797546
6357.549300108328
5898.209489699783
6219.178997779702
5484.120419227092
5769.78111662349
5109.903444390152
5364.92376932429
4999.639711969018
77261.26845083729
117382.87485778883
165052.4641339474
188665.23962453307
257839.92561212476
457785.6610483892
54672.192441555475
56022.09080143281
75824.49519944521
51972.64572877941
39012.081827382266
36674.63434493957
31813.072743621713
34222.877165784455
48438.52203478032
29503.10409277728
27352.747101583605
25364.80280947716
23534.41008851577
21858.178849843272
20347.17958310009
19037.551334419823
15988.24859224545
17621.955056090992
13203.027001255328
14348.680714110951
15648.928963775039
11061.480550925044
11930.926640149186
12903.471300639698
10068.12812992326
10814.5725825194
9190.415510766974
9834.344511125906
8413.762762675828
8972.16471124812
7724.8172123314
8211.538548666314
7112.130948841378
7538.296194587708
6940.575126988057
6565.739413712135
6077.02658512096
6408.071413733065
5638.4383837691175
5932.176307201958
5243.743657762457
5505.210160607695
4888.140967470758
5121.433590542661
104635.60614564134
139009.99100142677
177872.22150660606
235684.94106965064
274162.9318311435
279960.4359661789
413474.32606354303
630137.9443569714
66591.48994285012
72000.96631174133
95437.52855987917
60712.17442055625
44704.480411078745
41066.16565639817
34476.114564302145
37620.151921300334
54708.548399852334
31633.010775017086
36619.371944761515
29068.077720585105
26752.6196416371
24640.212932977494
22724.52904181609
21037.751002147223
19547.6232379938
23310.79190008965
17123.548371230612
18551.816327633434
13995.596843224776
15226.341571757657
16628.261153296353
11643.809374629636
12568.497155118655
13603.723054834234
10545.59189225254
11333.42530001053
9585.518258983386
10260.957337165504
8743.46362541942
9326.061885373076
8001.998898439623
8507.492213652693
7346.685939237737
7787.480582039231
7151.636921170342
6765.376862903407
6248.111192432145
6588.192414562684
5785.492920946844
6086.277925254796
5371.269998965853
5638.412482085046
5237.114282838088
4776.359611911408
4998.8166954867775
4663.130500205181
124685.36834304033
168161.12756215353
232534.97077619476
302898.5434131596
372363.8457827536
535704.9072421754
789041.4369200956
76390.05742430798
86448.09355265334
111832.0666386609
67058.81422709295
79800.31530925089
49444.62897218048
44633.5650164308
40349.459077520885
59803.2386189503
42387.28951506631
33338.08780464464
38211.866280048744
30457.68118728993
27879.827971209743
25445.158360727306
25872.701153117425
21482.338631230243
19903.057896508097
23594.014084304876
18395.949635081142
19951.28701313642
14767.138062789134
16083.14391199319
17573.113550147504
12208.694895103972
13184.415159806298
14276.675746684234
11006.748904651458
11832.450190056066
9965.634292997303
10669.523537095267
9059.564736453709
9663.706610778172
8266.78593697882
8788.843258957553
7569.946526778939
8023.665288894738
7351.257875024399
6954.887861367209
6409.766947731424
6757.9814925781975
5923.82964975543
6231.779628031451
5763.744637672498
5493.01711451075
5347.443320891208
5102.381676868429
4877.532063164613
4749.79603080841
4552.173737083641
4431.754032372722
196592.3675299914
144743.89772257366
308205.15845624096
259611.1359569965
233918.9116891863
418584.29602958675
628956.1842478868
921440.850531877
96012.92467390596
123890.64252613248
72905.56791855379
88027.87803397507
53107.708261591346
47348.022066008554
63993.34141707155
48835.91136012137
43682.46713086023
34631.51361563063
39304.01284646374
31498.671116553392
28651.657704575173
25935.063121149567
28463.395650019866
21647.782895982364
23860.93000501821
26029.49868775357
19219.00232723071
20702.395259924884
15506.310477490304
16902.310340780667
18523.854168400718
12749.172293368572
13769.652219285324
14911.226829845042
11446.264093478298
12306.302932651315
10326.362602800926
11055.29801833486
9358.399436853884
9981.095441012818
8516.37303834455
9052.52287548763
7780.246952594335
8244.654041518652
7537.894181205959
7132.961337999363
6563.006083517404
6917.767191629556
6052.051093640475
6367.077787010865
5876.035976861701
5612.955504381393
5466.447417787168
5199.74884179822
4978.364785130372
4856.091618025124
4653.896231701727
4502.779414438771
199048.5190925052
239971.8956892395
158697.18889043608
353853.965793523
283349.1245041334
268677.82229847525
489866.77449879394
713862.5966112163
1021785.0895163818
106704.80150437739
131959.19244873925
77618.39623753568
93264.27955477058
55674.712797085806
68046.4391026197
53877.06962234287
49319.96753696763
44421.31206422846
35542.32193436336
40030.149027762796
32084.70765036406
28114.235833641287
30309.60508896131
27707.395782923348
22237.70818046275
24122.631376146524
26087.693271011387
20521.349463433406
16197.129779132336
17655.387089190004
19376.28287429788
13258.796647263982
15495.173795431881
14313.334376497232
11859.458519076841
12749.32830432521
10663.667421775433
11414.881231323438
9637.746687506646
10275.648000212948
8748.353115660275
9297.606859385947
7976.426868514769
8449.050258314548
7711.858968974867
7298.099760342971
6709.600454852202
7064.992967738639
6166.898206556488
6494.429833067005
6006.718456456988
5744.127718180962
5546.2720367233505
5332.599287811146
5062.753153011724
4844.0828241792915
4652.798877788499
241114.7385988166
216937.91569258555
166437.21132746027
365050.6318915252
301822.84214614687
259184.61741775094
534503.3324397168
1083935.4000161036
773962.7988894306
112773.53153817782
134024.70410697474
81414.87190434347
96804.78699745797
61102.93917760224
71382.46284626979
55702.77966907964
50125.60535385836
45047.76789826489
36258.993536267626
40580.44922161234
33116.1507440067
30190.855135661608
28303.171320941747
22711.58990802435
24552.673944830232
25986.521150839584
21397.514574893252
16822.60653536953
18323.745665640585
20033.000398854307
16016.288087407951
13727.236602931865
14809.165770208792
12241.540154206314
13152.4430930562
10974.333135455565
11743.488478461222
10543.582466930375
9895.097411035395
8960.914417226633
9518.563944583895
8161.059422539217
8632.456842885613
7866.505133193139
7446.8001377158835
7220.035147050383
6864.4698817634
6598.943540193417
6282.933987914281
5986.904561443371
5732.047088723882
5498.263363422845
5255.9089582889255
5028.9894043566555
4822.860972131598
1116687.0074948792
1097136.9826346317
227570.61479516962
192938.96905494615
147697.54129742278
291228.71135959675
240889.98134117597
263023.45647103386
393886.3237500174
578707.1974204282
812300.7971509785
117737.07299471463
130549.79208990307
99758.0937485303
84412.65823826558
63310.01992271474
72611.75670732773
56598.159464116055
50618.63344885362
45324.13861765396
36791.09904014139
40836.79149776392
33489.83798327062
30642.91198771936
28161.971871496982
23803.168845229233
25843.347655129444
21935.91776953478
20499.319845252958
17368.407912882994
18865.601223236004
16473.465455836355
15237.186636356337
14152.545337314854
12587.485368562484
13517.2222547305
11254.111530781238
12034.549729286626
10775.17194558726
10132.5770085499
9154.555509787413
9710.508467313988
8837.586304766057
8354.119697695129
7992.65267003087
7565.92614098963
7178.230185223913
6840.554269617253
6523.368516758157
6227.284587298772
5947.621835708269
5690.645739876675
5445.359375569334
5215.053901704979
4998.69950407905
380639.32625576085
480464.8231007372
821952.8523041114
646491.2012521398
795948.8108327185
936116.2141901682
1032922.0270454952
800428.241269963
199482.7061704075
162013.79093140652
323740.38193242037
215581.83262564032
240768.034499523
275683.1354693248
422112.401549144
593919.3086486291
109790.58262645865
119730.40518644187
139719.58808910052
92839.73785318718
81117.73622877165
64006.74699440084
72382.39691884238
56739.87516569325
50621.80604332185
45315.60842593088
37000.43150090772
40764.72987032713
33638.712243291026
30692.892479826423
28086.109843533544